# vtk DataFile Version 4.0
vtk output
ASCII
DATASET UNSTRUCTURED_GRID
POINTS 21 float
2.0000000e+02 0.0000000e+00 0.0000000e+00 
1.9000000e+02 0.0000000e+00 0.0000000e+00 
1.8000000e+02 0.0000000e+00 0.0000000e+00 
1.7000000e+02 0.0000000e+00 0.0000000e+00 
1.6000000e+02 0.0000000e+00 0.0000000e+00 
1.5000000e+02 0.0000000e+00 0.0000000e+00 
1.4000000e+02 0.0000000e+00 0.0000000e+00 
1.3000000e+02 0.0000000e+00 0.0000000e+00 
1.2000000e+02 0.0000000e+00 0.0000000e+00 
1.1000000e+02 0.0000000e+00 0.0000000e+00 
1.0000000e+02 0.0000000e+00 0.0000000e+00 
9.0000000e+01 0.0000000e+00 0.0000000e+00 
8.0000000e+01 0.0000000e+00 0.0000000e+00 
7.0000000e+01 0.0000000e+00 0.0000000e+00 
6.0000000e+01 0.0000000e+00 0.0000000e+00 
5.0000000e+01 0.0000000e+00 0.0000000e+00 
4.0000000e+01 0.0000000e+00 0.0000000e+00 
3.0000000e+01 0.0000000e+00 0.0000000e+00 
2.0000000e+01 0.0000000e+00 0.0000000e+00 
1.0000000e+01 0.0000000e+00 0.0000000e+00 
0.0000000e+00 0.0000000e+00 0.0000000e+00 

CELLS 20 60
2 20 19
2 19 18
2 18 17
2 17 16
2 16 15
2 15 14
2 14 13
2 13 12
2 12 11
2 11 10
2 10 9
2 9 8
2 8 7
2 7 6
2 6 5
2 5 4
2 4 3
2 3 2
2 2 1
2 1 0

CELL_TYPES 20
3
3
3
3
3
3
3
3
3
3
3
3
3
3
3
3
3
3
3
3
POINT_DATA 21
FIELD FieldData 3
DISPLACEMENT 3 21  float
0.0000000e+00 -2.4188279e+08 0.0000000e+00 
0.0000000e+00 -2.2978865e+08 0.0000000e+00 
0.0000000e+00 -2.1769451e+08 0.0000000e+00 
0.0000000e+00 -2.0560037e+08 0.0000000e+00 
0.0000000e+00 -1.9350623e+08 0.0000000e+00 
0.0000000e+00 -1.8141210e+08 0.0000000e+00 
0.0000000e+00 -1.6931796e+08 0.0000000e+00 
0.0000000e+00 -1.5722382e+08 0.0000000e+00 
0.0000000e+00 -1.4512968e+08 0.0000000e+00 
0.0000000e+00 -1.3303554e+08 0.0000000e+00 
0.0000000e+00 -1.2094140e+08 0.0000000e+00 
0.0000000e+00 -1.0884726e+08 0.0000000e+00 
0.0000000e+00 -9.6753117e+07 0.0000000e+00 
0.0000000e+00 -8.4658978e+07 0.0000000e+00 
0.0000000e+00 -7.2564838e+07 0.0000000e+00 
0.0000000e+00 -6.0470698e+07 0.0000000e+00 
0.0000000e+00 -4.8376559e+07 0.0000000e+00 
0.0000000e+00 -3.6282419e+07 0.0000000e+00 
0.0000000e+00 -2.4188279e+07 0.0000000e+00 
0.0000000e+00 -1.2094140e+07 0.0000000e+00 
0.0000000e+00 0.0000000e+00 0.0000000e+00 
REACTION 3 21  float
-0.0000000e+00 -8.8000000e+01 -0.0000000e+00 
-0.0000000e+00 1.8000000e+02 -0.0000000e+00 
-0.0000000e+00 -1.3400000e+02 -0.0000000e+00 
-0.0000000e+00 7.2000000e+01 -0.0000000e+00 
-0.0000000e+00 -8.0000000e+00 -0.0000000e+00 
-0.0000000e+00 -6.0000000e+00 -0.0000000e+00 
-0.0000000e+00 -3.4000000e+01 -0.0000000e+00 
-0.0000000e+00 5.6000000e+01 -0.0000000e+00 
-0.0000000e+00 -2.2000000e+01 -0.0000000e+00 
-0.0000000e+00 -9.4000000e+01 -0.0000000e+00 
-0.0000000e+00 2.1200000e+03 -0.0000000e+00 
-0.0000000e+00 -2.8000000e+01 -0.0000000e+00 
-0.0000000e+00 -4.2000000e+01 -0.0000000e+00 
-0.0000000e+00 3.0000000e+01 -0.0000000e+00 
-0.0000000e+00 -4.0000000e+00 -0.0000000e+00 
-0.0000000e+00 1.6000000e+01 -0.0000000e+00 
-0.0000000e+00 -6.0000000e+00 -0.0000000e+00 
-0.0000000e+00 -6.0000000e+00 -0.0000000e+00 
-0.0000000e+00 -0.0000000e+00 -0.0000000e+00 
-0.0000000e+00 2.0000000e+00 -0.0000000e+00 
-0.0000000e+00 -1.0040000e+03 -0.0000000e+00 
ROTATION 3 21  float
0.0000000e+00 0.0000000e+00 -1.2094140e+06 
0.0000000e+00 0.0000000e+00 -1.2094140e+06 
0.0000000e+00 0.0000000e+00 -1.2094140e+06 
0.0000000e+00 0.0000000e+00 -1.2094140e+06 
0.0000000e+00 0.0000000e+00 -1.2094140e+06 
0.0000000e+00 0.0000000e+00 -1.2094140e+06 
0.0000000e+00 0.0000000e+00 -1.2094140e+06 
0.0000000e+00 0.0000000e+00 -1.2094140e+06 
0.0000000e+00 0.0000000e+00 -1.2094140e+06 
0.0000000e+00 0.0000000e+00 -1.2094140e+06 
0.0000000e+00 0.0000000e+00 -1.2094140e+06 
0.0000000e+00 0.0000000e+00 -1.2094140e+06 
0.0000000e+00 0.0000000e+00 -1.2094140e+06 
0.0000000e+00 0.0000000e+00 -1.2094140e+06 
0.0000000e+00 0.0000000e+00 -1.2094140e+06 
0.0000000e+00 0.0000000e+00 -1.2094140e+06 
0.0000000e+00 0.0000000e+00 -1.2094140e+06 
0.0000000e+00 0.0000000e+00 -1.2094140e+06 
0.0000000e+00 0.0000000e+00 -1.2094140e+06 
0.0000000e+00 0.0000000e+00 -1.2094140e+06 
0.0000000e+00 0.0000000e+00 -1.2094140e+06 
CELL_DATA 20
FIELD FieldData 0
